<?xml version="1.0" encoding="UTF-8"?>

<!-- generated on 2022-12-22 15:19:51 by Eclipse SUMO GUI Version 1.15.0
<configuration xmlns:xsi="http://www.w3.org/2001/XMLSchema-instance" xsi:noNamespaceSchemaLocation="http://sumo.dlr.de/xsd/sumoConfiguration.xsd">

    <input>
        <net-file value="data/simplified.net.xml"/>
        <route-files value="data/simplified.rou.xml"/>
    </input>

    <output>
        <tripinfo-output value="tripinfo.xml"/>
    </output>

    <gui_only>
        <start value="true"/>
    </gui_only>

</configuration>
-->

<tripinfos xmlns:xsi="http://www.w3.org/2001/XMLSchema-instance" xsi:noNamespaceSchemaLocation="http://sumo.dlr.de/xsd/tripinfo_file.xsd">
    <tripinfo id="6" depart="50.00" departLane="52o_0" departPos="5.10" departSpeed="0.00" departDelay="0.00" arrival="70.00" arrivalLane="51i_0" arrivalPos="8.19" arrivalSpeed="13.27" duration="20.00" routeLength="206.00" waitingTime="0.00" waitingCount="0" stopTime="0.00" timeLoss="5.15" rerouteNo="0" devices="tripinfo_6" vType="DEFAULT_VEHTYPE" speedFactor="1.05" vaporized=""/>
    <tripinfo id="0" depart="50.00" departLane="51o_0" departPos="5.10" departSpeed="0.00" departDelay="0.00" arrival="96.00" arrivalLane="52i_0" arrivalPos="8.08" arrivalSpeed="13.75" duration="46.00" routeLength="211.16" waitingTime="21.00" waitingCount="1" stopTime="0.00" timeLoss="30.07" rerouteNo="0" devices="tripinfo_0" vType="DEFAULT_VEHTYPE" speedFactor="1.06" vaporized=""/>
    <tripinfo id="3" depart="50.00" departLane="54o_0" departPos="5.10" departSpeed="0.00" departDelay="0.00" arrival="99.00" arrivalLane="53i_0" arrivalPos="8.02" arrivalSpeed="13.95" duration="49.00" routeLength="205.88" waitingTime="25.00" waitingCount="1" stopTime="0.00" timeLoss="34.09" rerouteNo="0" devices="tripinfo_3" vType="DEFAULT_VEHTYPE" speedFactor="1.08" vaporized=""/>
    <tripinfo id="4" depart="53.00" departLane="54o_0" departPos="5.10" departSpeed="0.00" departDelay="3.00" arrival="101.00" arrivalLane="51i_0" arrivalPos="8.19" arrivalSpeed="14.30" duration="48.00" routeLength="211.16" waitingTime="22.00" waitingCount="1" stopTime="0.00" timeLoss="32.36" rerouteNo="0" devices="tripinfo_4" vType="DEFAULT_VEHTYPE" speedFactor="1.03" vaporized=""/>
    <tripinfo id="5" depart="56.00" departLane="54o_0" departPos="5.10" departSpeed="0.00" departDelay="6.00" arrival="108.00" arrivalLane="52i_0" arrivalPos="8.08" arrivalSpeed="10.58" duration="52.00" routeLength="211.26" waitingTime="20.00" waitingCount="2" stopTime="0.00" timeLoss="33.36" rerouteNo="0" devices="tripinfo_5" vType="DEFAULT_VEHTYPE" speedFactor="0.83" vaporized=""/>
    <tripinfo id="7" depart="100.00" departLane="52o_0" departPos="5.10" departSpeed="0.00" departDelay="0.00" arrival="121.00" arrivalLane="54i_0" arrivalPos="8.03" arrivalSpeed="11.25" duration="21.00" routeLength="211.26" waitingTime="0.00" waitingCount="0" stopTime="0.00" timeLoss="3.54" rerouteNo="0" devices="tripinfo_7" vType="DEFAULT_VEHTYPE" speedFactor="0.89" vaporized=""/>
    <tripinfo id="8" depart="103.00" departLane="52o_0" departPos="5.10" departSpeed="0.00" departDelay="3.00" arrival="125.00" arrivalLane="53i_0" arrivalPos="8.02" arrivalSpeed="12.61" duration="22.00" routeLength="211.04" waitingTime="0.00" waitingCount="0" stopTime="0.00" timeLoss="4.67" rerouteNo="0" devices="tripinfo_8" vType="DEFAULT_VEHTYPE" speedFactor="0.94" vaporized=""/>
    <tripinfo id="1" depart="53.00" departLane="51o_0" departPos="5.10" departSpeed="0.00" departDelay="3.00" arrival="127.00" arrivalLane="54i_0" arrivalPos="8.03" arrivalSpeed="11.84" duration="74.00" routeLength="206.00" waitingTime="47.00" waitingCount="2" stopTime="0.00" timeLoss="57.23" rerouteNo="0" devices="tripinfo_1" vType="DEFAULT_VEHTYPE" speedFactor="0.94" vaporized=""/>
    <tripinfo id="2" depart="56.00" departLane="51o_0" departPos="5.10" departSpeed="0.00" departDelay="6.00" arrival="129.00" arrivalLane="53i_0" arrivalPos="8.02" arrivalSpeed="13.89" duration="73.00" routeLength="211.36" waitingTime="44.00" waitingCount="2" stopTime="0.00" timeLoss="56.98" rerouteNo="0" devices="tripinfo_2" vType="DEFAULT_VEHTYPE" speedFactor="1.01" vaporized=""/>
    <tripinfo id="12" depart="100.00" departLane="51o_0" departPos="5.10" departSpeed="0.00" departDelay="0.00" arrival="132.00" arrivalLane="52i_0" arrivalPos="8.08" arrivalSpeed="13.67" duration="32.00" routeLength="211.16" waitingTime="6.00" waitingCount="1" stopTime="0.00" timeLoss="15.96" rerouteNo="0" devices="tripinfo_12" vType="DEFAULT_VEHTYPE" speedFactor="1.05" vaporized=""/>
    <tripinfo id="13" depart="103.00" departLane="51o_0" departPos="5.10" departSpeed="0.00" departDelay="3.00" arrival="133.00" arrivalLane="54i_0" arrivalPos="8.03" arrivalSpeed="15.04" duration="30.00" routeLength="206.00" waitingTime="5.00" waitingCount="1" stopTime="0.00" timeLoss="15.80" rerouteNo="0" devices="tripinfo_13" vType="DEFAULT_VEHTYPE" speedFactor="1.12" vaporized=""/>
    <tripinfo id="9" depart="100.00" departLane="53o_0" departPos="5.10" departSpeed="0.00" departDelay="0.00" arrival="153.00" arrivalLane="54i_0" arrivalPos="8.03" arrivalSpeed="10.87" duration="53.00" routeLength="211.04" waitingTime="25.00" waitingCount="1" stopTime="0.00" timeLoss="34.21" rerouteNo="0" devices="tripinfo_9" vType="DEFAULT_VEHTYPE" speedFactor="0.86" vaporized=""/>
    <tripinfo id="10" depart="103.00" departLane="53o_0" departPos="5.10" departSpeed="0.00" departDelay="3.00" arrival="153.00" arrivalLane="51i_0" arrivalPos="8.19" arrivalSpeed="14.54" duration="50.00" routeLength="211.36" waitingTime="23.00" waitingCount="1" stopTime="0.00" timeLoss="35.49" rerouteNo="0" devices="tripinfo_10" vType="DEFAULT_VEHTYPE" speedFactor="1.09" vaporized=""/>
    <tripinfo id="11" depart="106.00" departLane="53o_0" departPos="5.10" departSpeed="0.00" departDelay="6.00" arrival="156.00" arrivalLane="52i_0" arrivalPos="8.08" arrivalSpeed="13.43" duration="50.00" routeLength="205.88" waitingTime="23.00" waitingCount="1" stopTime="0.00" timeLoss="34.36" rerouteNo="0" devices="tripinfo_11" vType="DEFAULT_VEHTYPE" speedFactor="1.03" vaporized=""/>
    <tripinfo id="15" depart="150.00" departLane="54o_0" departPos="5.10" departSpeed="0.00" departDelay="0.00" arrival="183.00" arrivalLane="53i_0" arrivalPos="8.02" arrivalSpeed="11.98" duration="33.00" routeLength="205.88" waitingTime="7.00" waitingCount="1" stopTime="0.00" timeLoss="16.43" rerouteNo="0" devices="tripinfo_15" vType="DEFAULT_VEHTYPE" speedFactor="0.93" vaporized=""/>
    <tripinfo id="16" depart="153.00" departLane="54o_0" departPos="5.10" departSpeed="0.00" departDelay="3.00" arrival="187.00" arrivalLane="51i_0" arrivalPos="8.19" arrivalSpeed="11.04" duration="34.00" routeLength="211.16" waitingTime="5.00" waitingCount="1" stopTime="0.00" timeLoss="15.34" rerouteNo="0" devices="tripinfo_16" vType="DEFAULT_VEHTYPE" speedFactor="0.88" vaporized=""/>
    <tripinfo id="14" depart="150.00" departLane="51o_0" departPos="5.10" departSpeed="0.00" departDelay="0.00" arrival="191.00" arrivalLane="53i_0" arrivalPos="8.02" arrivalSpeed="12.53" duration="41.00" routeLength="211.36" waitingTime="16.00" waitingCount="1" stopTime="0.00" timeLoss="25.37" rerouteNo="0" devices="tripinfo_14" vType="DEFAULT_VEHTYPE" speedFactor="0.99" vaporized=""/>
    <tripinfo id="18" depart="150.00" departLane="52o_0" departPos="5.10" departSpeed="0.00" departDelay="0.00" arrival="195.00" arrivalLane="51i_0" arrivalPos="8.19" arrivalSpeed="11.88" duration="45.00" routeLength="206.00" waitingTime="20.00" waitingCount="1" stopTime="0.00" timeLoss="28.60" rerouteNo="0" devices="tripinfo_18" vType="DEFAULT_VEHTYPE" speedFactor="0.94" vaporized=""/>
    <tripinfo id="19" depart="153.00" departLane="52o_0" departPos="5.10" departSpeed="0.00" departDelay="3.00" arrival="197.00" arrivalLane="54i_0" arrivalPos="8.03" arrivalSpeed="15.21" duration="44.00" routeLength="211.26" waitingTime="19.00" waitingCount="1" stopTime="0.00" timeLoss="30.04" rerouteNo="0" devices="tripinfo_19" vType="DEFAULT_VEHTYPE" speedFactor="1.16" vaporized=""/>
    <tripinfo id="17" depart="156.00" departLane="54o_0" departPos="5.10" departSpeed="0.00" departDelay="6.00" arrival="204.00" arrivalLane="52i_0" arrivalPos="8.08" arrivalSpeed="12.45" duration="48.00" routeLength="211.26" waitingTime="17.00" waitingCount="2" stopTime="0.00" timeLoss="31.18" rerouteNo="0" devices="tripinfo_17" vType="DEFAULT_VEHTYPE" speedFactor="0.94" vaporized=""/>
    <tripinfo id="20" depart="156.00" departLane="52o_0" departPos="5.10" departSpeed="0.00" departDelay="6.00" arrival="211.00" arrivalLane="53i_0" arrivalPos="8.02" arrivalSpeed="13.83" duration="55.00" routeLength="211.04" waitingTime="27.00" waitingCount="2" stopTime="0.00" timeLoss="39.31" rerouteNo="0" devices="tripinfo_20" vType="DEFAULT_VEHTYPE" speedFactor="1.02" vaporized=""/>
    <tripinfo id="21" depart="200.00" departLane="53o_0" departPos="5.10" departSpeed="0.00" departDelay="0.00" arrival="221.00" arrivalLane="54i_0" arrivalPos="8.03" arrivalSpeed="12.82" duration="21.00" routeLength="211.04" waitingTime="0.00" waitingCount="0" stopTime="0.00" timeLoss="4.91" rerouteNo="0" devices="tripinfo_21" vType="DEFAULT_VEHTYPE" speedFactor="1.01" vaporized=""/>
    <tripinfo id="22" depart="203.00" departLane="53o_0" departPos="5.10" departSpeed="0.00" departDelay="3.00" arrival="223.00" arrivalLane="51i_0" arrivalPos="8.19" arrivalSpeed="13.37" duration="20.00" routeLength="211.36" waitingTime="0.00" waitingCount="0" stopTime="0.00" timeLoss="3.99" rerouteNo="0" devices="tripinfo_22" vType="DEFAULT_VEHTYPE" speedFactor="0.97" vaporized=""/>
    <tripinfo id="24" depart="200.00" departLane="51o_0" departPos="5.10" departSpeed="0.00" departDelay="0.00" arrival="229.00" arrivalLane="52i_0" arrivalPos="8.08" arrivalSpeed="10.86" duration="29.00" routeLength="211.16" waitingTime="1.00" waitingCount="1" stopTime="0.00" timeLoss="9.16" rerouteNo="0" devices="tripinfo_24" vType="DEFAULT_VEHTYPE" speedFactor="0.83" vaporized=""/>
    <tripinfo id="25" depart="203.00" departLane="51o_0" departPos="5.10" departSpeed="0.00" departDelay="3.00" arrival="231.00" arrivalLane="54i_0" arrivalPos="8.03" arrivalSpeed="11.26" duration="28.00" routeLength="206.00" waitingTime="1.00" waitingCount="1" stopTime="0.00" timeLoss="9.77" rerouteNo="0" devices="tripinfo_25" vType="DEFAULT_VEHTYPE" speedFactor="0.87" vaporized=""/>
    <tripinfo id="26" depart="206.00" departLane="51o_0" departPos="5.10" departSpeed="0.00" departDelay="6.00" arrival="232.00" arrivalLane="53i_0" arrivalPos="8.02" arrivalSpeed="12.11" duration="26.00" routeLength="211.36" waitingTime="0.00" waitingCount="0" stopTime="0.00" timeLoss="8.72" rerouteNo="0" devices="tripinfo_26" vType="DEFAULT_VEHTYPE" speedFactor="0.92" vaporized=""/>
    <tripinfo id="23" depart="206.00" departLane="53o_0" departPos="5.10" departSpeed="0.00" departDelay="6.00" arrival="236.00" arrivalLane="52i_0" arrivalPos="8.08" arrivalSpeed="11.50" duration="30.00" routeLength="205.88" waitingTime="3.00" waitingCount="1" stopTime="0.00" timeLoss="12.03" rerouteNo="0" devices="tripinfo_23" vType="DEFAULT_VEHTYPE" speedFactor="0.89" vaporized=""/>
    <tripinfo id="27" depart="200.00" departLane="54o_0" departPos="5.10" departSpeed="0.00" departDelay="0.00" arrival="255.00" arrivalLane="53i_0" arrivalPos="8.02" arrivalSpeed="12.31" duration="55.00" routeLength="205.88" waitingTime="30.00" waitingCount="1" stopTime="0.00" timeLoss="38.32" rerouteNo="0" devices="tripinfo_27" vType="DEFAULT_VEHTYPE" speedFactor="0.95" vaporized=""/>
    <tripinfo id="33" depart="250.00" departLane="53o_0" departPos="5.10" departSpeed="0.00" departDelay="0.00" arrival="269.00" arrivalLane="54i_0" arrivalPos="8.03" arrivalSpeed="15.77" duration="19.00" routeLength="211.04" waitingTime="0.00" waitingCount="0" stopTime="0.00" timeLoss="5.31" rerouteNo="0" devices="tripinfo_33" vType="DEFAULT_VEHTYPE" speedFactor="1.17" vaporized=""/>
    <tripinfo id="34" depart="253.00" departLane="53o_0" departPos="5.10" departSpeed="0.00" departDelay="3.00" arrival="273.00" arrivalLane="51i_0" arrivalPos="8.19" arrivalSpeed="13.22" duration="20.00" routeLength="211.36" waitingTime="0.00" waitingCount="0" stopTime="0.00" timeLoss="4.07" rerouteNo="0" devices="tripinfo_34" vType="DEFAULT_VEHTYPE" speedFactor="0.99" vaporized=""/>
    <tripinfo id="28" depart="250.00" departLane="54o_0" departPos="5.10" departSpeed="0.00" departDelay="0.00" arrival="279.00" arrivalLane="51i_0" arrivalPos="8.19" arrivalSpeed="15.43" duration="29.00" routeLength="211.16" waitingTime="4.00" waitingCount="1" stopTime="0.00" timeLoss="14.43" rerouteNo="0" devices="tripinfo_28" vType="DEFAULT_VEHTYPE" speedFactor="1.13" vaporized=""/>
    <tripinfo id="29" depart="253.00" departLane="54o_0" departPos="5.10" departSpeed="0.00" departDelay="3.00" arrival="282.00" arrivalLane="52i_0" arrivalPos="8.08" arrivalSpeed="11.66" duration="29.00" routeLength="211.26" waitingTime="3.00" waitingCount="1" stopTime="0.00" timeLoss="11.93" rerouteNo="0" devices="tripinfo_29" vType="DEFAULT_VEHTYPE" speedFactor="0.93" vaporized=""/>
    <tripinfo id="30" depart="250.00" departLane="52o_0" departPos="5.10" departSpeed="0.00" departDelay="0.00" arrival="286.00" arrivalLane="51i_0" arrivalPos="8.19" arrivalSpeed="15.46" duration="36.00" routeLength="206.00" waitingTime="12.00" waitingCount="1" stopTime="0.00" timeLoss="22.01" rerouteNo="0" devices="tripinfo_30" vType="DEFAULT_VEHTYPE" speedFactor="1.18" vaporized=""/>
    <tripinfo id="31" depart="253.00" departLane="52o_0" departPos="5.10" departSpeed="0.00" departDelay="3.00" arrival="289.00" arrivalLane="54i_0" arrivalPos="8.03" arrivalSpeed="15.74" duration="36.00" routeLength="211.26" waitingTime="11.00" waitingCount="1" stopTime="0.00" timeLoss="21.85" rerouteNo="0" devices="tripinfo_31" vType="DEFAULT_VEHTYPE" speedFactor="1.15" vaporized=""/>
    <tripinfo id="35" depart="300.00" departLane="53o_0" departPos="5.10" departSpeed="0.00" departDelay="0.00" arrival="322.00" arrivalLane="52i_0" arrivalPos="8.08" arrivalSpeed="13.91" duration="22.00" routeLength="205.88" waitingTime="0.00" waitingCount="0" stopTime="0.00" timeLoss="6.25" rerouteNo="0" devices="tripinfo_35" vType="DEFAULT_VEHTYPE" speedFactor="1.02" vaporized=""/>
    <tripinfo id="39" depart="300.00" departLane="54o_0" departPos="5.10" departSpeed="0.00" departDelay="0.00" arrival="328.00" arrivalLane="53i_0" arrivalPos="8.02" arrivalSpeed="11.35" duration="28.00" routeLength="205.88" waitingTime="4.00" waitingCount="1" stopTime="0.00" timeLoss="10.21" rerouteNo="0" devices="tripinfo_39" vType="DEFAULT_VEHTYPE" speedFactor="0.90" vaporized=""/>
    <tripinfo id="40" depart="303.00" departLane="54o_0" departPos="5.10" departSpeed="0.00" departDelay="3.00" arrival="329.00" arrivalLane="51i_0" arrivalPos="8.19" arrivalSpeed="14.01" duration="26.00" routeLength="211.16" waitingTime="2.00" waitingCount="1" stopTime="0.00" timeLoss="10.21" rerouteNo="0" devices="tripinfo_40" vType="DEFAULT_VEHTYPE" speedFactor="1.03" vaporized=""/>
    <tripinfo id="32" depart="256.00" departLane="52o_0" departPos="5.10" departSpeed="0.00" departDelay="6.00" arrival="335.00" arrivalLane="53i_0" arrivalPos="8.02" arrivalSpeed="13.36" duration="79.00" routeLength="211.04" waitingTime="48.00" waitingCount="2" stopTime="0.00" timeLoss="62.73" rerouteNo="0" devices="tripinfo_32" vType="DEFAULT_VEHTYPE" speedFactor="1.01" vaporized=""/>
    <tripinfo id="41" depart="306.00" departLane="54o_0" departPos="5.10" departSpeed="0.00" departDelay="6.00" arrival="343.00" arrivalLane="52i_0" arrivalPos="8.08" arrivalSpeed="13.12" duration="37.00" routeLength="211.26" waitingTime="10.00" waitingCount="2" stopTime="0.00" timeLoss="20.69" rerouteNo="0" devices="tripinfo_41" vType="DEFAULT_VEHTYPE" speedFactor="0.96" vaporized=""/>
    <tripinfo id="36" depart="300.00" departLane="51o_0" departPos="5.10" departSpeed="0.00" departDelay="0.00" arrival="355.00" arrivalLane="52i_0" arrivalPos="8.08" arrivalSpeed="13.11" duration="55.00" routeLength="211.16" waitingTime="29.00" waitingCount="1" stopTime="0.00" timeLoss="38.36" rerouteNo="0" devices="tripinfo_36" vType="DEFAULT_VEHTYPE" speedFactor="0.97" vaporized=""/>
    <tripinfo id="37" depart="303.00" departLane="51o_0" departPos="5.10" departSpeed="0.00" departDelay="3.00" arrival="356.00" arrivalLane="54i_0" arrivalPos="8.03" arrivalSpeed="16.04" duration="53.00" routeLength="206.00" waitingTime="28.00" waitingCount="1" stopTime="0.00" timeLoss="39.19" rerouteNo="0" devices="tripinfo_37" vType="DEFAULT_VEHTYPE" speedFactor="1.18" vaporized=""/>
    <tripinfo id="45" depart="350.00" departLane="53o_0" departPos="5.10" departSpeed="0.00" departDelay="0.00" arrival="370.00" arrivalLane="54i_0" arrivalPos="8.03" arrivalSpeed="14.06" duration="20.00" routeLength="211.04" waitingTime="0.00" waitingCount="0" stopTime="0.00" timeLoss="5.33" rerouteNo="0" devices="tripinfo_45" vType="DEFAULT_VEHTYPE" speedFactor="1.09" vaporized=""/>
    <tripinfo id="46" depart="353.00" departLane="53o_0" departPos="5.10" departSpeed="0.00" departDelay="3.00" arrival="373.00" arrivalLane="51i_0" arrivalPos="8.19" arrivalSpeed="13.17" duration="20.00" routeLength="211.36" waitingTime="0.00" waitingCount="0" stopTime="0.00" timeLoss="4.37" rerouteNo="0" devices="tripinfo_46" vType="DEFAULT_VEHTYPE" speedFactor="1.00" vaporized=""/>
    <tripinfo id="47" depart="356.00" departLane="53o_0" departPos="5.10" departSpeed="0.00" departDelay="6.00" arrival="380.00" arrivalLane="52i_0" arrivalPos="8.08" arrivalSpeed="11.26" duration="24.00" routeLength="205.88" waitingTime="0.00" waitingCount="0" stopTime="0.00" timeLoss="5.82" rerouteNo="0" devices="tripinfo_47" vType="DEFAULT_VEHTYPE" speedFactor="0.90" vaporized=""/>
    <tripinfo id="38" depart="306.00" departLane="51o_0" departPos="5.10" departSpeed="0.00" departDelay="6.00" arrival="391.00" arrivalLane="53i_0" arrivalPos="8.02" arrivalSpeed="15.24" duration="85.00" routeLength="211.36" waitingTime="55.00" waitingCount="2" stopTime="0.00" timeLoss="70.77" rerouteNo="0" devices="tripinfo_38" vType="DEFAULT_VEHTYPE" speedFactor="1.10" vaporized=""/>
    <tripinfo id="48" depart="350.00" departLane="51o_0" departPos="5.10" departSpeed="0.00" departDelay="0.00" arrival="395.00" arrivalLane="52i_0" arrivalPos="8.08" arrivalSpeed="11.59" duration="45.00" routeLength="211.16" waitingTime="17.00" waitingCount="1" stopTime="0.00" timeLoss="26.22" rerouteNo="0" devices="tripinfo_48" vType="DEFAULT_VEHTYPE" speedFactor="0.88" vaporized=""/>
    <tripinfo id="42" depart="350.00" departLane="52o_0" departPos="5.10" departSpeed="0.00" departDelay="0.00" arrival="415.00" arrivalLane="51i_0" arrivalPos="8.19" arrivalSpeed="14.15" duration="65.00" routeLength="206.00" waitingTime="41.00" waitingCount="1" stopTime="0.00" timeLoss="50.07" rerouteNo="0" devices="tripinfo_42" vType="DEFAULT_VEHTYPE" speedFactor="1.09" vaporized=""/>
    <tripinfo id="43" depart="353.00" departLane="52o_0" departPos="5.10" departSpeed="0.00" departDelay="3.00" arrival="417.00" arrivalLane="54i_0" arrivalPos="8.03" arrivalSpeed="13.95" duration="64.00" routeLength="211.26" waitingTime="41.00" waitingCount="1" stopTime="0.00" timeLoss="48.77" rerouteNo="0" devices="tripinfo_43" vType="DEFAULT_VEHTYPE" speedFactor="1.04" vaporized=""/>
    <tripinfo id="44" depart="356.00" departLane="52o_0" departPos="5.10" departSpeed="0.00" departDelay="6.00" arrival="419.00" arrivalLane="53i_0" arrivalPos="8.02" arrivalSpeed="14.12" duration="63.00" routeLength="211.04" waitingTime="36.00" waitingCount="1" stopTime="0.00" timeLoss="47.54" rerouteNo="0" devices="tripinfo_44" vType="DEFAULT_VEHTYPE" speedFactor="1.04" vaporized=""/>
    <tripinfo id="54" depart="400.00" departLane="52o_0" departPos="5.10" departSpeed="0.00" departDelay="0.00" arrival="423.00" arrivalLane="51i_0" arrivalPos="8.19" arrivalSpeed="13.51" duration="23.00" routeLength="206.00" waitingTime="0.00" waitingCount="0" stopTime="0.00" timeLoss="6.43" rerouteNo="0" devices="tripinfo_54" vType="DEFAULT_VEHTYPE" speedFactor="1.00" vaporized=""/>
    <tripinfo id="55" depart="403.00" departLane="52o_0" departPos="5.10" departSpeed="0.00" departDelay="3.00" arrival="424.00" arrivalLane="54i_0" arrivalPos="8.03" arrivalSpeed="13.71" duration="21.00" routeLength="211.26" waitingTime="0.00" waitingCount="0" stopTime="0.00" timeLoss="5.45" rerouteNo="0" devices="tripinfo_55" vType="DEFAULT_VEHTYPE" speedFactor="1.00" vaporized=""/>
    <tripinfo id="49" depart="400.00" departLane="51o_0" departPos="5.10" departSpeed="0.00" departDelay="0.00" arrival="436.00" arrivalLane="54i_0" arrivalPos="8.03" arrivalSpeed="11.14" duration="36.00" routeLength="206.00" waitingTime="10.00" waitingCount="1" stopTime="0.00" timeLoss="17.47" rerouteNo="0" devices="tripinfo_49" vType="DEFAULT_VEHTYPE" speedFactor="0.85" vaporized=""/>
    <tripinfo id="50" depart="403.00" departLane="51o_0" departPos="5.10" departSpeed="0.00" departDelay="3.00" arrival="438.00" arrivalLane="53i_0" arrivalPos="8.02" arrivalSpeed="10.71" duration="35.00" routeLength="211.36" waitingTime="7.00" waitingCount="1" stopTime="0.00" timeLoss="16.98" rerouteNo="0" devices="tripinfo_50" vType="DEFAULT_VEHTYPE" speedFactor="0.85" vaporized=""/>
    <tripinfo id="51" depart="400.00" departLane="54o_0" departPos="5.10" departSpeed="0.00" departDelay="0.00" arrival="450.00" arrivalLane="53i_0" arrivalPos="8.02" arrivalSpeed="15.86" duration="50.00" routeLength="205.88" waitingTime="27.00" waitingCount="1" stopTime="0.00" timeLoss="36.49" rerouteNo="0" devices="tripinfo_51" vType="DEFAULT_VEHTYPE" speedFactor="1.17" vaporized=""/>
    <tripinfo id="52" depart="403.00" departLane="54o_0" departPos="5.10" departSpeed="0.00" departDelay="3.00" arrival="454.00" arrivalLane="51i_0" arrivalPos="8.19" arrivalSpeed="13.83" duration="51.00" routeLength="211.16" waitingTime="25.00" waitingCount="1" stopTime="0.00" timeLoss="34.49" rerouteNo="0" devices="tripinfo_52" vType="DEFAULT_VEHTYPE" speedFactor="1.02" vaporized=""/>
    <tripinfo id="53" depart="406.00" departLane="54o_0" departPos="5.10" departSpeed="0.00" departDelay="6.00" arrival="454.00" arrivalLane="52i_0" arrivalPos="8.08" arrivalSpeed="15.13" duration="48.00" routeLength="211.26" waitingTime="23.00" waitingCount="1" stopTime="0.00" timeLoss="33.91" rerouteNo="0" devices="tripinfo_53" vType="DEFAULT_VEHTYPE" speedFactor="1.10" vaporized=""/>
    <tripinfo id="60" depart="450.00" departLane="51o_0" departPos="5.10" departSpeed="0.00" departDelay="0.00" arrival="471.00" arrivalLane="52i_0" arrivalPos="8.08" arrivalSpeed="14.57" duration="21.00" routeLength="211.16" waitingTime="0.00" waitingCount="0" stopTime="0.00" timeLoss="5.47" rerouteNo="0" devices="tripinfo_60" vType="DEFAULT_VEHTYPE" speedFactor="1.08" vaporized=""/>
    <tripinfo id="56" depart="450.00" departLane="52o_0" departPos="5.10" departSpeed="0.00" departDelay="0.00" arrival="480.00" arrivalLane="53i_0" arrivalPos="8.02" arrivalSpeed="11.70" duration="30.00" routeLength="211.04" waitingTime="4.00" waitingCount="1" stopTime="0.00" timeLoss="11.79" rerouteNo="0" devices="tripinfo_56" vType="DEFAULT_VEHTYPE" speedFactor="0.90" vaporized=""/>
    <tripinfo id="61" depart="453.00" departLane="51o_0" departPos="5.10" departSpeed="0.00" departDelay="3.00" arrival="510.00" arrivalLane="54i_0" arrivalPos="8.03" arrivalSpeed="14.70" duration="57.00" routeLength="206.00" waitingTime="36.00" waitingCount="1" stopTime="0.00" timeLoss="42.87" rerouteNo="0" devices="tripinfo_61" vType="DEFAULT_VEHTYPE" speedFactor="1.12" vaporized=""/>
    <tripinfo id="57" depart="450.00" departLane="53o_0" departPos="5.10" departSpeed="0.00" departDelay="0.00" arrival="515.00" arrivalLane="54i_0" arrivalPos="8.03" arrivalSpeed="15.58" duration="65.00" routeLength="211.04" waitingTime="42.00" waitingCount="1" stopTime="0.00" timeLoss="50.32" rerouteNo="0" devices="tripinfo_57" vType="DEFAULT_VEHTYPE" speedFactor="1.14" vaporized=""/>
    <tripinfo id="58" depart="453.00" departLane="53o_0" departPos="5.10" departSpeed="0.00" departDelay="3.00" arrival="517.00" arrivalLane="51i_0" arrivalPos="8.19" arrivalSpeed="14.05" duration="64.00" routeLength="211.36" waitingTime="38.00" waitingCount="1" stopTime="0.00" timeLoss="48.59" rerouteNo="0" devices="tripinfo_58" vType="DEFAULT_VEHTYPE" speedFactor="1.02" vaporized=""/>
    <tripinfo id="59" depart="456.00" departLane="53o_0" departPos="5.10" departSpeed="0.00" departDelay="6.00" arrival="521.00" arrivalLane="52i_0" arrivalPos="8.08" arrivalSpeed="12.67" duration="65.00" routeLength="205.88" waitingTime="36.00" waitingCount="1" stopTime="0.00" timeLoss="47.91" rerouteNo="0" devices="tripinfo_59" vType="DEFAULT_VEHTYPE" speedFactor="0.97" vaporized=""/>
    <tripinfo id="69" depart="500.00" departLane="53o_0" departPos="5.10" departSpeed="0.00" departDelay="0.00" arrival="523.00" arrivalLane="54i_0" arrivalPos="8.03" arrivalSpeed="14.04" duration="23.00" routeLength="211.04" waitingTime="0.00" waitingCount="0" stopTime="0.00" timeLoss="6.75" rerouteNo="0" devices="tripinfo_69" vType="DEFAULT_VEHTYPE" speedFactor="1.02" vaporized=""/>
    <tripinfo id="63" depart="500.00" departLane="54o_0" departPos="5.10" departSpeed="0.00" departDelay="0.00" arrival="535.00" arrivalLane="53i_0" arrivalPos="8.02" arrivalSpeed="13.35" duration="35.00" routeLength="205.88" waitingTime="10.00" waitingCount="1" stopTime="0.00" timeLoss="18.80" rerouteNo="0" devices="tripinfo_63" vType="DEFAULT_VEHTYPE" speedFactor="0.99" vaporized=""/>
    <tripinfo id="64" depart="503.00" departLane="54o_0" departPos="5.10" departSpeed="0.00" departDelay="3.00" arrival="538.00" arrivalLane="51i_0" arrivalPos="8.19" arrivalSpeed="11.81" duration="35.00" routeLength="211.16" waitingTime="8.00" waitingCount="1" stopTime="0.00" timeLoss="17.46" rerouteNo="0" devices="tripinfo_64" vType="DEFAULT_VEHTYPE" speedFactor="0.94" vaporized=""/>
    <tripinfo id="65" depart="506.00" departLane="54o_0" departPos="5.10" departSpeed="0.00" departDelay="6.00" arrival="539.00" arrivalLane="52i_0" arrivalPos="8.08" arrivalSpeed="11.99" duration="33.00" routeLength="211.26" waitingTime="8.00" waitingCount="1" stopTime="0.00" timeLoss="15.56" rerouteNo="0" devices="tripinfo_65" vType="DEFAULT_VEHTYPE" speedFactor="0.88" vaporized=""/>
    <tripinfo id="62" depart="456.00" departLane="51o_0" departPos="5.10" departSpeed="0.00" departDelay="6.00" arrival="564.00" arrivalLane="53i_0" arrivalPos="8.02" arrivalSpeed="13.34" duration="108.00" routeLength="211.36" waitingTime="79.00" waitingCount="2" stopTime="0.00" timeLoss="92.44" rerouteNo="0" devices="tripinfo_62" vType="DEFAULT_VEHTYPE" speedFactor="1.02" vaporized=""/>
    <tripinfo id="72" depart="550.00" departLane="51o_0" departPos="5.10" departSpeed="0.00" departDelay="0.00" arrival="573.00" arrivalLane="52i_0" arrivalPos="8.08" arrivalSpeed="11.92" duration="23.00" routeLength="211.16" waitingTime="0.00" waitingCount="0" stopTime="0.00" timeLoss="5.29" rerouteNo="0" devices="tripinfo_72" vType="DEFAULT_VEHTYPE" speedFactor="0.94" vaporized=""/>
    <tripinfo id="73" depart="553.00" departLane="51o_0" departPos="5.10" departSpeed="0.00" departDelay="3.00" arrival="574.00" arrivalLane="54i_0" arrivalPos="8.03" arrivalSpeed="14.53" duration="21.00" routeLength="206.00" waitingTime="0.00" waitingCount="0" stopTime="0.00" timeLoss="5.65" rerouteNo="0" devices="tripinfo_73" vType="DEFAULT_VEHTYPE" speedFactor="1.06" vaporized=""/>
    <tripinfo id="74" depart="556.00" departLane="51o_0" departPos="5.10" departSpeed="0.00" departDelay="6.00" arrival="576.00" arrivalLane="53i_0" arrivalPos="8.02" arrivalSpeed="13.17" duration="20.00" routeLength="211.36" waitingTime="0.00" waitingCount="0" stopTime="0.00" timeLoss="3.48" rerouteNo="0" devices="tripinfo_74" vType="DEFAULT_VEHTYPE" speedFactor="0.96" vaporized=""/>
    <tripinfo id="66" depart="500.00" departLane="52o_0" departPos="5.10" departSpeed="0.00" departDelay="0.00" arrival="579.00" arrivalLane="51i_0" arrivalPos="8.19" arrivalSpeed="11.90" duration="79.00" routeLength="206.00" waitingTime="53.00" waitingCount="1" stopTime="0.00" timeLoss="62.04" rerouteNo="0" devices="tripinfo_66" vType="DEFAULT_VEHTYPE" speedFactor="0.91" vaporized=""/>
    <tripinfo id="67" depart="503.00" departLane="52o_0" departPos="5.10" departSpeed="0.00" departDelay="3.00" arrival="582.00" arrivalLane="54i_0" arrivalPos="8.03" arrivalSpeed="12.35" duration="79.00" routeLength="211.26" waitingTime="52.00" waitingCount="1" stopTime="0.00" timeLoss="61.48" rerouteNo="0" devices="tripinfo_67" vType="DEFAULT_VEHTYPE" speedFactor="0.91" vaporized=""/>
    <tripinfo id="75" depart="550.00" departLane="54o_0" departPos="5.10" departSpeed="0.00" departDelay="0.00" arrival="583.00" arrivalLane="53i_0" arrivalPos="8.02" arrivalSpeed="13.27" duration="33.00" routeLength="205.88" waitingTime="8.00" waitingCount="1" stopTime="0.00" timeLoss="16.65" rerouteNo="0" devices="tripinfo_75" vType="DEFAULT_VEHTYPE" speedFactor="0.98" vaporized=""/>
    <tripinfo id="76" depart="553.00" departLane="54o_0" departPos="5.10" departSpeed="0.00" departDelay="3.00" arrival="585.00" arrivalLane="51i_0" arrivalPos="8.19" arrivalSpeed="13.82" duration="32.00" routeLength="211.16" waitingTime="7.00" waitingCount="1" stopTime="0.00" timeLoss="16.46" rerouteNo="0" devices="tripinfo_76" vType="DEFAULT_VEHTYPE" speedFactor="1.03" vaporized=""/>
    <tripinfo id="68" depart="506.00" departLane="52o_0" departPos="5.10" departSpeed="0.00" departDelay="6.00" arrival="595.00" arrivalLane="53i_0" arrivalPos="8.02" arrivalSpeed="14.12" duration="89.00" routeLength="211.04" waitingTime="59.00" waitingCount="2" stopTime="0.00" timeLoss="73.40" rerouteNo="0" devices="tripinfo_68" vType="DEFAULT_VEHTYPE" speedFactor="1.04" vaporized=""/>
</tripinfos>
